TITLE = "2D Flow Past Circular Cylinder"
VARIABLES = "X", "Y","Z","Type"
ZONE N=7316, E=36057, DATAPACKING=POINT, ZONETYPE=FETETRAHEDRON
0.000000	0.000000	0.000000	4
0.000000	1.000000	0.000000	3
0.000000	0.100000	0.000000	6
0.000000	0.200000	0.000000	6
0.000000	0.300000	0.000000	6
0.000000	0.400000	0.000000	6
0.000000	0.500000	0.000000	6
0.000000	0.600000	0.000000	6
0.000000	0.700000	0.000000	6
0.000000	0.800000	0.000000	6
0.000000	0.900000	0.000000	6
1.000000	1.000000	0.000000	5
0.100000	1.000000	0.000000	3
0.200000	1.000000	0.000000	3
0.300000	1.000000	0.000000	3
0.400000	1.000000	0.000000	3
0.500000	1.000000	0.000000	3
0.600000	1.000000	0.000000	3
0.700000	1.000000	0.000000	3
0.800000	1.000000	0.000000	3
0.900000	1.000000	0.000000	3
1.000000	0.000000	0.000000	4
1.000000	0.900000	0.000000	5
1.000000	0.800000	0.000000	5
1.000000	0.700000	0.000000	5
1.000000	0.600000	0.000000	5
1.000000	0.500000	0.000000	5
1.000000	0.400000	0.000000	5
1.000000	0.300000	0.000000	5
1.000000	0.200000	0.000000	5
1.000000	0.100000	0.000000	5
0.100000	0.000000	0.000000	4
0.200000	0.000000	0.000000	4
0.300000	0.000000	0.000000	4
0.400000	0.000000	0.000000	4
0.500000	0.000000	0.000000	4
0.600000	0.000000	0.000000	4
0.700000	0.000000	0.000000	4
0.800000	0.000000	0.000000	4
0.900000	0.000000	0.000000	4
0.929722	0.071937	0.000000	1
0.066408	0.446736	0.000000	1
0.070115	0.071273	0.000000	1
0.070874	0.929380	0.000000	1
0.929781	0.929833	0.000000	1
0.162135	0.099397	0.000000	1
0.082693	0.158790	0.000000	1
0.917000	0.160260	0.000000	1
0.157400	0.916082	0.000000	1
0.098609	0.836463	0.000000	1
0.837657	0.101419	0.000000	1
0.903191	0.837560	0.000000	1
0.843960	0.916874	0.000000	1
0.087182	0.732379	0.000000	1
0.734015	0.089957	0.000000	1
0.914906	0.733811	0.000000	1
0.746048	0.913071	0.000000	1
0.265990	0.086863	0.000000	1
0.085241	0.259491	0.000000	1
0.255646	0.912550	0.000000	1
0.914589	0.261573	0.000000	1
0.365036	0.083827	0.000000	1
0.082366	0.360615	0.000000	1
0.917869	0.362910	0.000000	1
0.353687	0.913292	0.000000	1
0.086286	0.631643	0.000000	1
0.633697	0.089273	0.000000	1
0.647670	0.912457	0.000000	1
0.915507	0.633507	0.000000	1
0.082093	0.530964	0.000000	1
0.533489	0.084797	0.000000	1
0.919023	0.533158	0.000000	1
0.549619	0.914535	0.000000	1
0.829799	0.217810	0.000000	1
0.449329	0.068316	0.000000	1
0.934195	0.448557	0.000000	1
0.451753	0.915388	0.000000	1
0.760125	0.174435	0.000000	1
0.670452	0.181258	0.000000	1
0.564093	0.176690	0.000000	1
0.828471	0.327482	0.000000	1
0.844404	0.447549	0.000000	1
0.210147	0.826549	0.000000	1
0.168445	0.756933	0.000000	1
0.174731	0.666490	0.000000	1
0.169882	0.560020	0.000000	1
0.310458	0.821836	0.000000	1
0.406853	0.830388	0.000000	1
0.169558	0.213549	0.000000	1
0.240016	0.168973	0.000000	1
0.332147	0.173706	0.000000	1
0.447631	0.162266	0.000000	1
0.171604	0.322115	0.000000	1
0.156883	0.442331	0.000000	1
0.793697	0.828622	0.000000	1
0.836091	0.759522	0.000000	1
0.829594	0.669932	0.000000	1
0.832990	0.564941	0.000000	1
0.694173	0.822534	0.000000	1
0.595343	0.826216	0.000000	1
0.501039	0.831904	0.000000	1
0.727616	0.277531	0.000000	1
0.266493	0.721319	0.000000	1
0.270696	0.267517	0.000000	1
0.742676	0.726045	0.000000	1
0.636826	0.736353	0.000000	1
0.253872	0.383909	0.000000	1
0.375190	0.737152	0.000000	1
0.747904	0.394467	0.000000	1
0.744265	0.611533	0.000000	1
0.260679	0.604729	0.000000	1
0.610497	0.271090	0.000000	1
0.388637	0.262448	0.000000	1
0.669319	0.653881	0.000000	1
0.650633	0.366307	0.000000	1
0.354895	0.641900	0.000000	1
0.339022	0.342591	0.000000	1
0.253592	0.493699	0.000000	1
0.749195	0.505164	0.000000	1
0.498198	0.266581	0.000000	1
0.457468	0.758298	0.000000	1
0.539859	0.741355	0.000000	1
0.676487	0.456255	0.000000	1
0.577264	0.646424	0.000000	1
0.465667	0.661929	0.000000	1
0.343315	0.435490	0.000000	1
0.342927	0.538860	0.000000	1
0.548018	0.360101	0.000000	1
0.436410	0.368934	0.000000	1
0.645028	0.554074	0.000000	1
0.424919	0.575650	0.000000	1
0.590745	0.456767	0.000000	1
0.504804	0.443829	0.000000	1
0.522014	0.548298	0.000000	1
0.429348	0.483721	0.000000	1
1.000000	0.000000	5.000000	4
0.000000	0.000000	5.000000	4
0.900000	0.000000	5.000000	4
0.800000	0.000000	5.000000	4
0.700000	0.000000	5.000000	4
0.600000	0.000000	5.000000	4
0.500000	0.000000	5.000000	4
0.400000	0.000000	5.000000	4
0.300000	0.000000	5.000000	4
0.200000	0.000000	5.000000	4
0.100000	0.000000	5.000000	4
1.000000	1.000000	5.000000	5
1.000000	0.100000	5.000000	5
1.000000	0.200000	5.000000	5
1.000000	0.300000	5.000000	5
1.000000	0.400000	5.000000	5
1.000000	0.500000	5.000000	5
1.000000	0.600000	5.000000	5
1.000000	0.700000	5.000000	5
1.000000	0.800000	5.000000	5
1.000000	0.900000	5.000000	5
0.000000	1.000000	5.000000	3
0.100000	1.000000	5.000000	3
0.200000	1.000000	5.000000	3
0.300000	1.000000	5.000000	3
0.400000	1.000000	5.000000	3
0.500000	1.000000	5.000000	3
0.600000	1.000000	5.000000	3
0.700000	1.000000	5.000000	3
0.800000	1.000000	5.000000	3
0.900000	1.000000	5.000000	3
0.000000	0.100000	5.000000	6
0.000000	0.200000	5.000000	6
0.000000	0.300000	5.000000	6
0.000000	0.400000	5.000000	6
0.000000	0.500000	5.000000	6
0.000000	0.600000	5.000000	6
0.000000	0.700000	5.000000	6
0.000000	0.800000	5.000000	6
0.000000	0.900000	5.000000	6
0.071913	0.929691	5.000000	2
0.067728	0.449461	5.000000	2
0.071446	0.070320	5.000000	2
0.930059	0.070716	5.000000	2
0.929736	0.929574	5.000000	2
0.099735	0.162623	5.000000	2
0.159270	0.083297	5.000000	2
0.160179	0.916929	5.000000	2
0.917676	0.157233	5.000000	2
0.838204	0.098438	5.000000	2
0.101322	0.837555	5.000000	2
0.837336	0.902767	5.000000	2
0.916602	0.843448	5.000000	2
0.089803	0.733888	5.000000	2
0.734244	0.087533	5.000000	2
0.733546	0.914263	5.000000	2
0.912157	0.744758	5.000000	2
0.086796	0.266318	5.000000	2
0.260491	0.086637	5.000000	2
0.261377	0.914496	5.000000	2
0.915369	0.255919	5.000000	2
0.362093	0.084572	5.000000	2
0.083328	0.365233	5.000000	2
0.362610	0.917776	5.000000	2
0.916343	0.355053	5.000000	2
0.633522	0.087787	5.000000	2
0.088897	0.633665	5.000000	2
0.907233	0.642750	5.000000	2
0.633241	0.914847	5.000000	2
0.084168	0.533596	5.000000	2
0.532695	0.084447	5.000000	2
0.532876	0.918642	5.000000	2
0.897086	0.531862	5.000000	2
0.217500	0.829561	5.000000	2
0.448022	0.068511	5.000000	2
0.927619	0.443525	5.000000	2
0.448313	0.934069	5.000000	2
0.519371	0.442012	5.000000	2
0.174104	0.759834	5.000000	2
0.180701	0.670126	5.000000	2
0.175263	0.564224	5.000000	2
0.326819	0.828237	5.000000	2
0.446692	0.844142	5.000000	2
0.831205	0.210077	5.000000	2
0.761256	0.168341	5.000000	2
0.671389	0.176710	5.000000	2
0.564626	0.175132	5.000000	2
0.830024	0.311957	5.000000	2
0.835382	0.423838	5.000000	2
0.214658	0.171289	5.000000	2
0.169502	0.241218	5.000000	2
0.173005	0.332999	5.000000	2
0.160490	0.448088	5.000000	2
0.324647	0.175679	5.000000	2
0.445917	0.162720	5.000000	2
0.827981	0.793056	5.000000	2
0.758990	0.835031	5.000000	2
0.669214	0.827929	5.000000	2
0.564164	0.831703	5.000000	2
0.821341	0.694761	5.000000	2
0.812255	0.595613	5.000000	2
0.795689	0.509883	5.000000	2
0.276579	0.727117	5.000000	2
0.731004	0.265838	5.000000	2
0.268848	0.274077	5.000000	2
0.725145	0.740787	5.000000	2
0.742745	0.646536	5.000000	2
0.389183	0.264425	5.000000	2
0.392592	0.747560	5.000000	2
0.757103	0.361771	5.000000	2
0.610173	0.739893	5.000000	2
0.269378	0.609873	5.000000	2
0.615405	0.267824	5.000000	2
0.258478	0.390274	5.000000	2
0.655509	0.650619	5.000000	2
0.665526	0.361388	5.000000	2
0.363243	0.649522	5.000000	2
0.343291	0.346604	5.000000	2
0.706829	0.553084	5.000000	2
0.727075	0.447132	5.000000	2
0.501989	0.266674	5.000000	2
0.502436	0.748709	5.000000	2
0.261524	0.499169	5.000000	2
0.451422	0.675928	5.000000	2
0.444441	0.370386	5.000000	2
0.560421	0.361446	5.000000	2
0.355862	0.545283	5.000000	2
0.351796	0.439903	5.000000	2
0.545053	0.644977	5.000000	2
0.448705	0.588397	5.000000	2
0.440762	0.485521	5.000000	2
0.611517	0.569036	5.000000	2
0.618909	0.465965	5.000000	2
0.530941	0.533818	5.000000	2
0.000000	0.000000	0.100000	4
0.000000	0.000000	0.200000	4
0.000000	0.000000	0.300000	4
0.000000	0.000000	0.400000	4
0.000000	0.000000	0.500000	4
0.000000	0.000000	0.600000	4
0.000000	0.000000	0.700000	4
0.000000	0.000000	0.800000	4
0.000000	0.000000	0.900000	4
0.000000	0.000000	1.000000	4
0.000000	0.000000	1.100000	4
0.000000	0.000000	1.200000	4
0.000000	0.000000	1.300000	4
0.000000	0.000000	1.400000	4
0.000000	0.000000	1.500000	4
0.000000	0.000000	1.600000	4
0.000000	0.000000	1.700000	4
0.000000	0.000000	1.800000	4
0.000000	0.000000	1.900000	4
0.000000	0.000000	2.000000	4
0.000000	0.000000	2.100000	4
0.000000	0.000000	2.200000	4
0.000000	0.000000	2.300000	4
0.000000	0.000000	2.400000	4
0.000000	0.000000	2.500000	4
0.000000	0.000000	2.600000	4
0.000000	0.000000	2.700000	4
0.000000	0.000000	2.800000	4
0.000000	0.000000	2.900000	4
0.000000	0.000000	3.000000	4
0.000000	0.000000	3.100000	4
0.000000	0.000000	3.200000	4
0.000000	0.000000	3.300000	4
0.000000	0.000000	3.400000	4
0.000000	0.000000	3.500000	4
0.000000	0.000000	3.600000	4
0.000000	0.000000	3.700000	4
0.000000	0.000000	3.800000	4
0.000000	0.000000	3.900000	4
0.000000	0.000000	4.000000	4
0.000000	0.000000	4.100000	4
0.000000	0.000000	4.200000	4
0.000000	0.000000	4.300000	4
0.000000	0.000000	4.400000	4
0.000000	0.000000	4.500000	4
0.000000	0.000000	4.600000	4
0.000000	0.000000	4.700000	4
0.000000	0.000000	4.800000	4
0.000000	0.000000	4.900000	4
0.000000	1.000000	0.100000	3
0.000000	1.000000	0.200000	3
0.000000	1.000000	0.300000	3
0.000000	1.000000	0.400000	3
0.000000	1.000000	0.500000	3
0.000000	1.000000	0.600000	3
0.000000	1.000000	0.700000	3
0.000000	1.000000	0.800000	3
0.000000	1.000000	0.900000	3
0.000000	1.000000	1.000000	3
0.000000	1.000000	1.100000	3
0.000000	1.000000	1.200000	3
0.000000	1.000000	1.300000	3
0.000000	1.000000	1.400000	3
0.000000	1.000000	1.500000	3
0.000000	1.000000	1.600000	3
0.000000	1.000000	1.700000	3
0.000000	1.000000	1.800000	3
0.000000	1.000000	1.900000	3
0.000000	1.000000	2.000000	3
0.000000	1.000000	2.100000	3
0.000000	1.000000	2.200000	3
0.000000	1.000000	2.300000	3
0.000000	1.000000	2.400000	3
0.000000	1.000000	2.500000	3
0.000000	1.000000	2.600000	3
0.000000	1.000000	2.700000	3
0.000000	1.000000	2.800000	3
0.000000	1.000000	2.900000	3
0.000000	1.000000	3.000000	3
0.000000	1.000000	3.100000	3
0.000000	1.000000	3.200000	3
0.000000	1.000000	3.300000	3
0.000000	1.000000	3.400000	3
0.000000	1.000000	3.500000	3
0.000000	1.000000	3.600000	3
0.000000	1.000000	3.700000	3
0.000000	1.000000	3.800000	3
0.000000	1.000000	3.900000	3
0.000000	1.000000	4.000000	3
0.000000	1.000000	4.100000	3
0.000000	1.000000	4.200000	3
0.000000	1.000000	4.300000	3
0.000000	1.000000	4.400000	3
0.000000	1.000000	4.500000	3
0.000000	1.000000	4.600000	3
0.000000	1.000000	4.700000	3
0.000000	1.000000	4.800000	3
0.000000	1.000000	4.900000	3
0.000000	0.929946	4.929352	6
0.000000	0.450547	0.067116	6
0.000000	0.506446	4.585541	6
0.000000	0.498497	0.712818	6
0.000000	0.929949	0.070647	6
0.000000	0.070580	4.929301	6
0.000000	0.070584	0.070704	6
0.000000	0.917043	4.842891	6
0.000000	0.084038	4.842798	6
0.000000	0.163539	0.097760	6
0.000000	0.084047	0.157198	6
0.000000	0.917053	0.157108	6
0.000000	0.837995	0.097784	6
0.000000	0.163530	4.902269	6
0.000000	0.837985	4.902216	6
0.000000	0.913029	4.743963	6
0.000000	0.088502	4.743776	6
0.000000	0.734534	0.086249	6
0.000000	0.088515	0.256239	6
0.000000	0.267665	0.085357	6
0.000000	0.913050	0.256032	6
0.000000	0.734522	4.913755	6
0.000000	0.267653	4.914664	6
0.000000	0.090191	0.356478	6
0.000000	0.366765	0.082372	6
0.000000	0.911335	0.356110	6
0.000000	0.366746	4.917635	6
0.000000	0.634502	0.086201	6
0.000000	0.634488	4.913807	6
0.000000	0.090168	4.643539	6
0.000000	0.911298	4.643879	6
0.000000	0.534784	0.082783	6
0.000000	0.534771	4.917219	6
0.000000	0.089833	4.542786	6
0.000000	0.911020	4.543260	6
0.000000	0.089868	0.457225	6
0.000000	0.911073	0.456724	6
0.000000	0.450553	4.932954	6
0.000000	0.089359	4.442312	6
0.000000	0.072799	2.544606	6
0.000000	0.910582	4.442777	6
0.000000	0.089404	0.557688	6
0.000000	0.910649	0.557203	6
0.000000	0.088890	4.342096	6
0.000000	0.910036	4.342250	6
0.000000	0.088943	0.657892	6
0.000000	0.910108	0.657729	6
0.000000	0.088622	4.242157	6
0.000000	0.909336	4.241667	6
0.000000	0.088677	0.757822	6
0.000000	0.909401	0.758315	6
0.000000	0.088737	0.857541	6
0.000000	0.908719	0.858810	6
0.000000	0.908669	4.141176	6
0.000000	0.088688	4.142434	6
0.000000	0.089152	0.957153	6
0.000000	0.908405	0.959204	6
0.000000	0.908371	4.040786	6
0.000000	0.089114	4.042823	6
0.000000	0.908484	3.940411	6
0.000000	0.089738	3.943252	6
0.000000	0.089764	1.056728	6
0.000000	0.908504	1.059582	6
0.000000	0.090287	3.843629	6
0.000000	0.908748	3.840069	6
0.000000	0.090303	1.156357	6
0.000000	0.908758	1.159927	6
0.000000	0.090640	1.256106	6
0.000000	0.090815	1.355969	6
0.000000	0.908964	1.260181	6
0.000000	0.909086	1.360339	6
0.000000	0.090631	3.743885	6
0.000000	0.090810	3.644026	6
0.000000	0.908960	3.739817	6
0.000000	0.909085	3.639661	6
0.000000	0.090904	1.455920	6
0.000000	0.909154	1.460419	6
0.000000	0.909214	1.560438	6
0.000000	0.090972	1.555947	6
0.000000	0.091072	1.656057	6
0.000000	0.909322	1.660391	6
0.000000	0.091233	1.756254	6
0.000000	0.091413	1.856497	6
0.000000	0.091421	1.956683	6
0.000000	0.091077	2.056776	6
0.000000	0.090454	2.156864	6
0.000000	0.909539	1.760265	6
0.000000	0.909876	1.860068	6
0.000000	0.910180	1.959862	6
0.000000	0.910258	2.059645	6
0.000000	0.910221	2.159276	6
0.000000	0.909155	3.539584	6
0.000000	0.909219	3.439577	6
0.000000	0.909337	3.339657	6
0.000000	0.090901	3.544080	6
0.000000	0.090970	3.444065	6
0.000000	0.091070	3.343985	6
0.000000	0.091230	3.243867	6
0.000000	0.091408	3.143811	6
0.000000	0.909577	3.239868	6
0.000000	0.909978	3.140254	6
0.000000	0.910576	2.258526	6
0.000000	0.911960	2.357006	6
0.000000	0.089733	2.257037	6
0.000000	0.088657	2.357294	6
0.000000	0.910432	3.040824	6
0.000000	0.910834	2.941655	6
0.000000	0.911413	2.842949	6
0.000000	0.912738	2.744945	6
0.000000	0.915156	2.647894	6
0.000000	0.091408	3.043999	6
0.000000	0.091090	2.944498	6
0.000000	0.090823	2.844915	6
0.000000	0.092165	2.743507	6
0.000000	0.100920	2.633257	6
0.000000	0.085608	2.456615	6
0.000000	0.914672	2.454277	6
0.000000	0.916457	2.551087	6
0.000000	0.829321	4.791462	6
0.000000	0.493909	2.656370	6
0.000000	0.760646	4.834160	6
0.000000	0.671587	4.827093	6
0.000000	0.566700	4.828686	6
0.000000	0.822566	4.690181	6
0.000000	0.822950	4.588012	6
0.000000	0.821934	4.487128	6
0.000000	0.820950	4.386301	6
0.000000	0.819636	4.285039	6
0.000000	0.817822	4.183716	6
0.000000	0.816546	4.082654	6
0.000000	0.816535	3.981625	6
0.000000	0.817176	3.880652	6
0.000000	0.817743	3.779937	6
0.000000	0.818088	3.679491	6
0.000000	0.818271	3.579245	6
0.000000	0.818387	3.479142	6
0.000000	0.818546	3.379170	6
0.000000	0.818883	3.279393	6
0.000000	0.819553	3.179936	6
0.000000	0.820583	3.080909	6
0.000000	0.821460	2.982206	6
0.000000	0.821988	2.883967	6
0.000000	0.823260	2.786513	6
0.000000	0.826756	2.690452	6
0.000000	0.173784	4.791349	6
0.000000	0.243684	4.834758	6
0.000000	0.336445	4.830014	6
0.000000	0.451212	4.841007	6
0.000000	0.181068	4.689562	6
0.000000	0.179800	4.586723	6
0.000000	0.178939	4.485519	6
0.000000	0.177775	4.384872	6
0.000000	0.176945	4.284848	6
0.000000	0.176725	4.185554	6
0.000000	0.177309	4.086592	6
0.000000	0.178671	3.987709	6
0.000000	0.180111	3.888701	6
0.000000	0.181052	3.789348	6
0.000000	0.181551	3.689699	6
0.000000	0.181792	3.589850	6
0.000000	0.181930	3.489861	6
0.000000	0.182083	3.389739	6
0.000000	0.182352	3.289479	6
0.000000	0.182780	3.189141	6
0.000000	0.183202	3.088985	6
0.000000	0.182964	2.989568	6
0.000000	0.181899	2.891139	6
0.000000	0.181290	2.793689	6
0.000000	0.184138	2.697994	6
0.000000	0.829350	0.208536	6
0.000000	0.760672	0.165843	6
0.000000	0.671622	0.172917	6
0.000000	0.566737	0.171332	6
0.000000	0.822621	0.309809	6
0.000000	0.823036	0.411967	6
0.000000	0.822050	0.512839	6
0.000000	0.821086	0.613659	6
0.000000	0.819769	0.714920	6
0.000000	0.817934	0.816247	6
0.000000	0.816627	0.917317	6
0.000000	0.816587	1.018354	6
0.000000	0.817205	1.119334	6
0.000000	0.817757	1.220055	6
0.000000	0.818094	1.320505	6
0.000000	0.818271	1.420756	6
0.000000	0.818383	1.520874	6
0.000000	0.818531	1.620882	6
0.000000	0.818844	1.720754	6
0.000000	0.819450	1.820427	6
0.000000	0.820318	1.919890	6
0.000000	0.820822	2.019362	6
0.000000	0.820571	2.118811	6
0.000000	0.820356	2.218058	6
0.000000	0.821563	2.316777	6
0.000000	0.825399	2.413660	6
0.000000	0.832713	2.506228	6
0.000000	0.173806	0.208681	6
0.000000	0.243707	0.165277	6
0.000000	0.336475	0.170019	6
0.000000	0.451243	0.159026	6
0.000000	0.181107	0.310469	6
0.000000	0.179861	0.413299	6
0.000000	0.179025	0.514485	6
0.000000	0.177878	0.615109	6
0.000000	0.177056	0.715115	6
0.000000	0.176830	0.814397	6
0.000000	0.177395	0.913358	6
0.000000	0.178733	1.012247	6
0.000000	0.180151	1.111266	6
0.000000	0.181075	1.210629	6
0.000000	0.181563	1.310288	6
0.000000	0.181798	1.410145	6
0.000000	0.181932	1.510149	6
0.000000	0.182082	1.610307	6
0.000000	0.182343	1.710661	6
0.000000	0.182756	1.811234	6
0.000000	0.183160	1.911918	6
0.000000	0.182899	2.012382	6
0.000000	0.181688	2.112624	6
0.000000	0.180161	2.212913	6
0.000000	0.178724	2.313624	6
0.000000	0.176178	2.416291	6
0.000000	0.167498	2.527104	6
0.000000	0.833314	2.597990	6
0.000000	0.197090	2.613703	6
0.000000	0.727832	4.740013	6
0.000000	0.278609	4.740109	6
0.000000	0.727889	0.259987	6
0.000000	0.278655	0.259929	6
0.000000	0.269244	0.368837	6
0.000000	0.269341	0.470301	6
0.000000	0.266954	0.571155	6
0.000000	0.265037	0.671812	6
0.000000	0.264424	0.770641	6
0.000000	0.264423	0.868281	6
0.000000	0.266309	0.965886	6
0.000000	0.269286	1.063700	6
0.000000	0.271195	1.162482	6
0.000000	0.272194	1.261918	6
0.000000	0.272667	1.361698	6
0.000000	0.272897	1.461677	6
0.000000	0.273072	1.561837	6
0.000000	0.273346	1.662256	6
0.000000	0.273867	1.763064	6
0.000000	0.274720	1.864365	6
0.000000	0.275564	1.965973	6
0.000000	0.274239	2.066733	6
0.000000	0.271261	2.167040	6
0.000000	0.269175	2.267085	6
0.000000	0.267945	2.367195	6
0.000000	0.736869	0.366517	6
0.000000	0.734364	0.466732	6
0.000000	0.732577	0.567127	6
0.000000	0.731574	0.668585	6
0.000000	0.728561	0.771175	6
0.000000	0.724663	0.873285	6
0.000000	0.723779	0.975416	6
0.000000	0.725112	1.077676	6
0.000000	0.726281	1.179263	6
0.000000	0.726980	1.280214	6
0.000000	0.727340	1.380744	6
0.000000	0.727527	1.481029	6
0.000000	0.727691	1.581174	6
0.000000	0.727997	1.681195	6
0.000000	0.728665	1.780996	6
0.000000	0.729945	1.880344	6
0.000000	0.731778	1.979036	6
0.000000	0.731857	2.077942	6
0.000000	0.730320	2.176869	6
0.000000	0.730177	2.276515	6
0.000000	0.733147	2.376511	6
0.000000	0.736771	4.633469	6
0.000000	0.734223	4.533238	6
0.000000	0.732399	4.432826	6
0.000000	0.731382	4.331355	6
0.000000	0.728387	4.228762	6
0.000000	0.724527	4.126657	6
0.000000	0.723685	4.024539	6
0.000000	0.725055	3.922293	6
0.000000	0.726251	3.820717	6
0.000000	0.726966	3.719774	6
0.000000	0.727335	3.619253	6
0.000000	0.727529	3.518981	6
0.000000	0.727703	3.418867	6
0.000000	0.728031	3.318924	6
0.000000	0.728753	3.219303	6
0.000000	0.730166	3.120327	6
0.000000	0.732294	3.022295	6
0.000000	0.733011	2.924411	6
0.000000	0.732814	2.826892	6
0.000000	0.735569	2.729239	6
0.000000	0.269165	4.631194	6
0.000000	0.269226	4.529711	6
0.000000	0.266809	4.428828	6
0.000000	0.264877	4.328139	6
0.000000	0.264264	4.229288	6
0.000000	0.264284	4.131642	6
0.000000	0.266202	4.034045	6
0.000000	0.269214	3.936244	6
0.000000	0.271151	3.837478	6
0.000000	0.272170	3.738057	6
0.000000	0.272656	3.638290	6
0.000000	0.272893	3.538326	6
0.000000	0.273075	3.438196	6
0.000000	0.273362	3.337854	6
0.000000	0.273912	3.237242	6
0.000000	0.274817	3.136407	6
0.000000	0.275742	3.035806	6
0.000000	0.274523	2.937013	6
0.000000	0.271776	2.840192	6
0.000000	0.270504	2.746020	6
0.000000	0.740962	2.473469	6
0.000000	0.266259	2.467791	6
0.000000	0.614484	0.258933	6
0.000000	0.614416	4.741079	6
0.000000	0.396217	0.256733	6
0.000000	0.396156	4.743303	6
0.000000	0.657679	4.668411	6
0.000000	0.657775	0.331589	6
0.000000	0.350987	4.666359	6
0.000000	0.351072	0.333675	6
0.000000	0.273549	2.654591	6
0.000000	0.270853	2.561930	6
0.000000	0.648627	4.581689	6
0.000000	0.648766	0.418297	6
0.000000	0.360904	4.575085	6
0.000000	0.361032	0.424934	6
0.000000	0.643561	0.517962	6
0.000000	0.643372	4.482006	6
0.000000	0.358476	0.526014	6
0.000000	0.358301	4.473980	6
0.000000	0.643103	4.381572	6
0.000000	0.643331	0.618369	6
0.000000	0.351017	4.372870	6
0.000000	0.351215	0.627084	6
0.000000	0.643447	4.277967	6
0.000000	0.643674	0.721951	6
0.000000	0.351864	4.272292	6
0.000000	0.352066	0.727623	6
0.000000	0.633367	4.174485	6
0.000000	0.633552	0.825427	6
0.000000	0.351003	4.177175	6
0.000000	0.351192	0.822724	6
0.000000	0.628591	4.070825	6
0.000000	0.628729	0.929101	6
0.000000	0.350809	4.082180	6
0.000000	0.350960	0.917727	6
0.000000	0.632108	1.034281	6
0.000000	0.632018	3.965664	6
0.000000	0.357328	1.012551	6
0.000000	0.357219	3.987371	6
0.000000	0.634429	1.137372	6
0.000000	0.634377	3.862591	6
0.000000	0.360840	1.110659	6
0.000000	0.360771	3.889284	6
0.000000	0.635667	3.760939	6
0.000000	0.362556	3.789861	6
0.000000	0.635693	1.239038	6
0.000000	0.362596	1.210101	6
0.000000	0.636313	3.660070	6
0.000000	0.363411	3.689988	6
0.000000	0.636325	1.339919	6
0.000000	0.363431	1.309990	6
0.000000	0.636631	1.440402	6
0.000000	0.363816	1.410041	6
0.000000	0.636629	3.559601	6
0.000000	0.363808	3.589952	6
0.000000	0.636823	1.540707	6
0.000000	0.364029	1.510217	6
0.000000	0.636832	3.459323	6
0.000000	0.364030	3.489800	6
0.000000	0.637118	3.359140	6
0.000000	0.637735	3.259092	6
0.000000	0.364280	3.389464	6
0.000000	0.364769	3.288806	6
0.000000	0.637089	1.640952	6
0.000000	0.364265	1.610606	6
0.000000	0.639065	3.159469	6
0.000000	0.641728	3.061079	6
0.000000	0.365758	3.187629	6
0.000000	0.367566	3.085691	6
0.000000	0.637658	1.741143	6
0.000000	0.638879	1.841069	6
0.000000	0.641318	1.939997	6
0.000000	0.645553	2.036363	6
0.000000	0.364722	1.711398	6
0.000000	0.365647	1.812898	6
0.000000	0.367336	1.915556	6
0.000000	0.369644	2.019580	6
0.000000	0.641558	2.134036	6
0.000000	0.638247	2.232067	6
0.000000	0.363835	2.119883	6
0.000000	0.359004	2.219818	6
0.000000	0.359049	2.317393	6
0.000000	0.640542	2.336014	6
0.000000	0.370087	2.983088	6
0.000000	0.364425	2.885431	6
0.000000	0.359375	2.789768	6
0.000000	0.646379	2.965481	6
0.000000	0.643221	2.868687	6
0.000000	0.641883	2.771149	6
0.000000	0.358799	2.416797	6
0.000000	0.645089	2.441148	6
0.000000	0.760289	2.552955	6
0.000000	0.742827	2.632625	6
0.000000	0.505590	0.261031	6
0.000000	0.505520	4.738993	6
0.000000	0.356609	2.699812	6
0.000000	0.650731	2.666879	6
0.000000	0.663170	2.553968	6
0.000000	0.362919	2.513823	6
0.000000	0.562775	0.355853	6
0.000000	0.562660	4.644155	6
0.000000	0.448487	0.359776	6
0.000000	0.448375	4.640245	6
0.000000	0.458378	4.520745	6
0.000000	0.439273	4.416183	6
0.000000	0.428087	4.319090	6
0.000000	0.448291	4.217102	6
0.000000	0.426592	4.129034	6
0.000000	0.443618	4.045096	6
0.000000	0.449724	3.946197	6
0.000000	0.452566	3.845643	6
0.000000	0.453938	3.745104	6
0.000000	0.454586	3.644733	6
0.000000	0.454901	3.544451	6
0.000000	0.455128	3.444135	6
0.000000	0.455482	3.343634	6
0.000000	0.456231	3.242740	6
0.000000	0.457811	3.141041	6
0.000000	0.461205	3.037138	6
0.000000	0.470303	2.924929	6
0.000000	0.439735	2.832624	6
0.000000	0.458555	0.479258	6
0.000000	0.439502	0.583810	6
0.000000	0.428308	0.680834	6
0.000000	0.448515	0.782764	6
0.000000	0.426777	0.870854	6
0.000000	0.443762	0.954809	6
0.000000	0.449821	1.053731	6
0.000000	0.452624	1.154307	6
0.000000	0.453969	1.254865	6
0.000000	0.454600	1.355252	6
0.000000	0.454904	1.455552	6
0.000000	0.455118	1.555903	6
0.000000	0.455446	1.656488	6
0.000000	0.456139	1.757581	6
0.000000	0.457603	1.859726	6
0.000000	0.460776	1.964498	6
0.000000	0.469459	2.078066	6
0.000000	0.438924	2.172774	6
0.000000	0.455044	2.265583	6
0.000000	0.443722	2.366253	6
0.000000	0.561799	0.461533	6
0.000000	0.544658	0.565226	6
0.000000	0.566339	0.670440	6
0.000000	0.553445	0.769087	6
0.000000	0.526460	0.875163	6
0.000000	0.537829	0.989453	6
0.000000	0.542165	1.094489	6
0.000000	0.544195	1.196686	6
0.000000	0.545180	1.297775	6
0.000000	0.545649	1.398369	6
0.000000	0.545900	1.498768	6
0.000000	0.546143	1.599166	6
0.000000	0.546594	1.699714	6
0.000000	0.547557	1.800518	6
0.000000	0.549569	1.901469	6
0.000000	0.553988	2.001122	6
0.000000	0.567423	2.087785	6
0.000000	0.537600	2.180680	6
0.000000	0.554643	2.287451	6
0.000000	0.544800	2.393663	6
0.000000	0.561629	4.538461	6
0.000000	0.544442	4.434761	6
0.000000	0.566074	4.329481	6
0.000000	0.553227	4.230785	6
0.000000	0.526284	4.124732	6
0.000000	0.537708	4.010469	6
0.000000	0.542089	3.905456	6
0.000000	0.544153	3.803277	6
0.000000	0.545158	3.702204	6
0.000000	0.545642	3.601625	6
0.000000	0.545904	3.501251	6
0.000000	0.546165	3.400905	6
0.000000	0.546656	3.300478	6
0.000000	0.547707	3.199942	6
0.000000	0.549898	3.099505	6
0.000000	0.554642	3.000631	6
0.000000	0.568485	2.914623	6
0.000000	0.539235	2.822329	6
0.000000	0.358192	2.606616	6
0.000000	0.506682	0.413699	6
0.000000	0.496149	0.639829	6
0.000000	0.455797	2.461973	6
0.000000	0.556189	2.504709	6
0.000000	0.454512	2.740767	6
0.000000	0.565488	2.608182	6
0.000000	0.558288	2.713337	6
0.000000	0.460476	2.568498	6
0.000000	0.499932	2.328812	6
0.000000	0.498099	4.287850	6
0.000000	0.495883	4.360308	6
0.000000	0.424392	2.654059	6
1.000000	1.000000	0.100000	5
1.000000	1.000000	0.200000	5
1.000000	1.000000	0.300000	5
1.000000	1.000000	0.400000	5
1.000000	1.000000	0.500000	5
1.000000	1.000000	0.600000	5
1.000000	1.000000	0.700000	5
1.000000	1.000000	0.800000	5
1.000000	1.000000	0.900000	5
1.000000	1.000000	1.000000	5
1.000000	1.000000	1.100000	5
1.000000	1.000000	1.200000	5
1.000000	1.000000	1.300000	5
1.000000	1.000000	1.400000	5
1.000000	1.000000	1.500000	5
1.000000	1.000000	1.600000	5
1.000000	1.000000	1.700000	5
1.000000	1.000000	1.800000	5
1.000000	1.000000	1.900000	5
1.000000	1.000000	2.000000	5
1.000000	1.000000	2.100000	5
1.000000	1.000000	2.200000	5
1.000000	1.000000	2.300000	5
1.000000	1.000000	2.400000	5
1.000000	1.000000	2.500000	5
1.000000	1.000000	2.600000	5
1.000000	1.000000	2.700000	5
1.000000	1.000000	2.800000	5
1.000000	1.000000	2.900000	5
1.000000	1.000000	3.000000	5
1.000000	1.000000	3.100000	5
1.000000	1.000000	3.200000	5
1.000000	1.000000	3.300000	5
1.000000	1.000000	3.400000	5
1.000000	1.000000	3.500000	5
1.000000	1.000000	3.600000	5
1.000000	1.000000	3.700000	5
1.000000	1.000000	3.800000	5
1.000000	1.000000	3.900000	5
1.000000	1.000000	4.000000	5
1.000000	1.000000	4.100000	5
1.000000	1.000000	4.200000	5
1.000000	1.000000	4.300000	5
1.000000	1.000000	4.400000	5
1.000000	1.000000	4.500000	5
1.000000	1.000000	4.600000	5
1.000000	1.000000	4.700000	5
1.000000	1.000000	4.800000	5
1.000000	1.000000	4.900000	5
0.929946	1.000000	4.929352	3
0.450713	1.000000	0.067878	3
0.506446	1.000000	4.585541	3
0.497305	1.000000	0.708255	3
0.930021	1.000000	0.070624	3
0.070580	1.000000	4.929301	3
0.070605	1.000000	0.070757	3
0.917043	1.000000	4.842891	3
0.084038	1.000000	4.842798	3
0.163592	1.000000	0.097978	3
0.084028	1.000000	0.157305	3
0.917275	1.000000	0.157039	3
0.838198	1.000000	0.097796	3
0.163530	1.000000	4.902269	3
0.837985	1.000000	4.902216	3
0.913029	1.000000	4.743963	3
0.088502	1.000000	4.743776	3
0.734727	1.000000	0.086508	3
0.088317	1.000000	0.256350	3
0.267819	1.000000	0.085858	3
0.913564	1.000000	0.255873	3
0.734522	1.000000	4.913755	3
0.267653	1.000000	4.914664	3
0.089687	1.000000	0.356573	3
0.366987	1.000000	0.083156	3
0.912142	1.000000	0.355861	3
0.366746	1.000000	4.917635	3
0.634697	1.000000	0.086823	3
0.634488	1.000000	4.913807	3
0.090168	1.000000	4.643539	3
0.911298	1.000000	4.643879	3
0.534987	1.000000	0.083652	3
0.534771	1.000000	4.917219	3
0.089833	1.000000	4.542786	3
0.911020	1.000000	4.543260	3
0.089125	1.000000	0.457332	3
0.911918	1.000000	0.456432	3
0.450553	1.000000	4.932954	3
0.089359	1.000000	4.442312	3
0.072799	1.000000	2.544606	3
0.910582	1.000000	4.442777	3
0.088678	1.000000	0.557813	3
0.911192	1.000000	0.556869	3
0.088890	1.000000	4.342096	3
0.910036	1.000000	4.342250	3
0.088441	1.000000	0.657987	3
0.910259	1.000000	0.657342	3
0.088622	1.000000	4.242157	3
0.909336	1.000000	4.241667	3
0.088417	1.000000	0.757858	3
0.909334	1.000000	0.757936	3
0.088631	1.000000	0.857535	3
0.908615	1.000000	0.858515	3
0.908669	1.000000	4.141176	3
0.088688	1.000000	4.142434	3
0.089119	1.000000	0.957131	3
0.908328	1.000000	0.959010	3
0.908371	1.000000	4.040786	3
0.089114	1.000000	4.042823	3
0.908484	1.000000	3.940411	3
0.089738	1.000000	3.943252	3
0.089758	1.000000	1.056706	3
0.908460	1.000000	1.059469	3
0.090287	1.000000	3.843629	3
0.908748	1.000000	3.840069	3
0.090306	1.000000	1.156340	3
0.908736	1.000000	1.159867	3
0.090643	1.000000	1.256095	3
0.090817	1.000000	1.355963	3
0.908954	1.000000	1.260152	3
0.909082	1.000000	1.360325	3
0.090631	1.000000	3.743885	3
0.090810	1.000000	3.644026	3
0.908960	1.000000	3.739817	3
0.909085	1.000000	3.639661	3
0.090905	1.000000	1.455917	3
0.909153	1.000000	1.460414	3
0.909214	1.000000	1.560436	3
0.090973	1.000000	1.555946	3
0.091072	1.000000	1.656056	3
0.909322	1.000000	1.660390	3
0.091233	1.000000	1.756254	3
0.091413	1.000000	1.856497	3
0.091421	1.000000	1.956683	3
0.091077	1.000000	2.056776	3
0.090454	1.000000	2.156864	3
0.909539	1.000000	1.760265	3
0.909876	1.000000	1.860068	3
0.910180	1.000000	1.959862	3
0.910258	1.000000	2.059645	3
0.910221	1.000000	2.159276	3
0.909155	1.000000	3.539584	3
0.909219	1.000000	3.439577	3
0.909337	1.000000	3.339657	3
0.090901	1.000000	3.544080	3
0.090970	1.000000	3.444065	3
0.091070	1.000000	3.343985	3
0.091230	1.000000	3.243867	3
0.091408	1.000000	3.143811	3
0.909577	1.000000	3.239868	3
0.909978	1.000000	3.140254	3
0.910576	1.000000	2.258526	3
0.911960	1.000000	2.357006	3
0.089733	1.000000	2.257037	3
0.088657	1.000000	2.357294	3
0.910432	1.000000	3.040824	3
0.910834	1.000000	2.941655	3
0.911413	1.000000	2.842949	3
0.912738	1.000000	2.744945	3